 Entering Gaussian System, Link 0=g16
 Input=example.gjf
 Output=example.out
 Initial command:
 C:\G16W\l1.exe ".\Gau-4488.inp" "example.out" /scrdir=".\"
 Entering Link 1 = C:\G16W\l1.exe PID=      1472.
  
 Copyright (c) 1988-2017, Gaussian, Inc.  All Rights Reserved.
  
 This is part of the Gaussian(R) 16 program.  It is based on
 the Gaussian(R) 09 system (copyright 2009, Gaussian, Inc.),
 the Gaussian(R) 03 system (copyright 2003, Gaussian, Inc.),
 the Gaussian(R) 98 system (copyright 1998, Gaussian, Inc.),
 the Gaussian(R) 94 system (copyright 1995, Gaussian, Inc.),
 the Gaussian 92(TM) system (copyright 1992, Gaussian, Inc.),
 the Gaussian 90(TM) system (copyright 1990, Gaussian, Inc.),
 the Gaussian 88(TM) system (copyright 1988, Gaussian, Inc.),
 the Gaussian 86(TM) system (copyright 1986, Carnegie Mellon
 University), and the Gaussian 82(TM) system (copyright 1983,
 Carnegie Mellon University). Gaussian is a federally registered
 trademark of Gaussian, Inc.
  
 This software contains proprietary and confidential information,
 including trade secrets, belonging to Gaussian, Inc.
  
 This software is provided under written license and may be
 used, copied, transmitted, or stored only in accord with that
 written license.
  
 The following legend is applicable only to US Government
 contracts under FAR:
  
                    RESTRICTED RIGHTS LEGEND
  
 Use, reproduction and disclosure by the US Government is
 subject to restrictions as set forth in subparagraphs (a)
 and (c) of the Commercial Computer Software - Restricted
 Rights clause in FAR 52.227-19.
  
 Gaussian, Inc.
 340 Quinnipiac St., Bldg. 40, Wallingford CT 06492
  
  
 ---------------------------------------------------------------
 Warning -- This program may not be used in any manner that
 competes with the business of Gaussian, Inc. or will provide
 assistance to any competitor of Gaussian, Inc.  The licensee
 of this program is prohibited from giving any competitor of
 Gaussian, Inc. access to this program.  By using this program,
 the user acknowledges that Gaussian, Inc. is engaged in the
 business of creating and licensing software in the field of
 computational chemistry and represents and warrants to the
 licensee that it is not a competitor of Gaussian, Inc. and that
 it will not use this program in any manner prohibited above.
 ---------------------------------------------------------------
  

 Cite this work as:
 Gaussian 16, Revision B.01,
 M. J. Frisch, G. W. Trucks, H. B. Schlegel, G. E. Scuseria, 
 M. A. Robb, J. R. Cheeseman, G. Scalmani, V. Barone, 
 G. A. Petersson, H. Nakatsuji, X. Li, M. Caricato, A. V. Marenich, 
 J. Bloino, B. G. Janesko, R. Gomperts, B. Mennucci, H. P. Hratchian, 
 J. V. Ortiz, A. F. Izmaylov, J. L. Sonnenberg, D. Williams-Young, 
 F. Ding, F. Lipparini, F. Egidi, J. Goings, B. Peng, A. Petrone, 
 T. Henderson, D. Ranasinghe, V. G. Zakrzewski, J. Gao, N. Rega, 
 G. Zheng, W. Liang, M. Hada, M. Ehara, K. Toyota, R. Fukuda, 
 J. Hasegawa, M. Ishida, T. Nakajima, Y. Honda, O. Kitao, H. Nakai, 
 T. Vreven, K. Throssell, J. A. Montgomery, Jr., J. E. Peralta, 
 F. Ogliaro, M. J. Bearpark, J. J. Heyd, E. N. Brothers, K. N. Kudin, 
 V. N. Staroverov, T. A. Keith, R. Kobayashi, J. Normand, 
 K. Raghavachari, A. P. Rendell, J. C. Burant, S. S. Iyengar, 
 J. Tomasi, M. Cossi, J. M. Millam, M. Klene, C. Adamo, R. Cammi, 
 J. W. Ochterski, R. L. Martin, K. Morokuma, O. Farkas, 
 J. B. Foresman, and D. J. Fox, Gaussian, Inc., Wallingford CT, 2016.
 
 ******************************************
 Gaussian 16:  EM64W-G16RevB.01 16-Dec-2017
                15-Jul-2022 
 ******************************************
 %CPU=0-7
 SetSPE:  set environment variable "MP_BIND" = "yes"
 SetSPE:  set environment variable "MP_BLIST" = "0,1,2,3,4,5,6,7"
 Will use up to    8 processors via shared memory.
 %Mem=8GB
 %chk=example.chk
 --------------------------------------------------------
 # Scan B3LYP/6-31G* EmpiricalDispersion=GD3BJ NoSymmetry
 --------------------------------------------------------
 1/38=1,60=1,172=1/1,8;
 2/12=2,15=1,17=6,18=5,29=3,40=1/2;
 3/5=1,6=6,7=1,11=2,25=1,30=1,74=-5,124=41/1,2,3;
 4//1;
 5/5=2,38=5/2;
 6/7=2,8=2,9=2,10=2,18=1,28=1/1;
 1/60=1/8(1);
 99/9=1/99;
 2/15=1,29=3/2;
 3/5=1,6=6,7=1,11=2,25=1,30=1,74=-5,124=41/1,2,3;
 4/5=5,16=3,69=1/1;
 5/5=2,38=5/2;
 1/60=1/8(-4);
 99/9=1/99;
 --------------------------------
 Optimized at B3LYP-D3(BJ)/6-31G*
 --------------------------------
 Symbolic Z-matrix:
 Charge =  0 Multiplicity = 1
 C
 H                    1    B1
 H                    1    B2       2    A1
 H                    1    B3       2    A2       3    D1       0
 C                    1    B4       2    A3       3    D2       0
 H                    5    B5       1    A4       2    D3       0
 H                    5    B6       1    A5       3    D3       0
 H                    5    B7       1    A6       4    D3       0
       Variables:
  B1                    1.09613                  
  B2                    1.09613                  
  B3                    1.09613                  
  B4                    1.53009                  
  B5                    1.09613                  
  B6                    1.09613                  
  B7                    1.09613                  
  A1                  107.55279                  
  A2                  107.55279                  
  A3                  111.32755                  
  A4                  111.32755                  
  A5                  111.32755                  
  A6                  111.32755                  
  D1                  115.58262                  
  D2                 -122.20869                  
  D3                 -180.     Scan 36   10.     
 
 Scan the potential surface.
 Variable   Value     No. Steps Step-Size
 -------- ----------- --------- ---------
    16    -180.000000      36     10.0000
 A total of     37 points will be computed.
 ---------------------------------------------------------------------------------------------------
                            Z-MATRIX (ANGSTROMS AND DEGREES)
   CD    Cent   Atom    N1       Length/X        N2       Alpha/Y        N3        Beta/Z          J
 ---------------------------------------------------------------------------------------------------
      1      1  C 
      2      2  H        1   1.096128(     1)
      3      3  H        1   1.096128(     2)      2  107.553(     8)
      4      4  H        1   1.096128(     3)      2  107.553(     9)      3  115.583(    14)      0
      5      5  C        1   1.530090(     4)      2  111.328(    10)      3 -122.209(    15)      0
      6      6  H        5   1.096128(     5)      1  111.328(    11)      2 -180.000(    16)      0
      7      7  H        5   1.096128(     6)      1  111.328(    12)      3 -180.000(    17)      0
      8      8  H        5   1.096128(     7)      1  111.328(    13)      4 -180.000(    18)      0
 ---------------------------------------------------------------------------------------------------
                         Z-Matrix orientation:                         
 ---------------------------------------------------------------------
 Center     Atomic      Atomic             Coordinates (Angstroms)
 Number     Number       Type             X           Y           Z
 ---------------------------------------------------------------------
      1          6           0        0.000000    0.000000    0.000000
      2          1           0        0.000000    0.000000    1.096128
      3          1           0        1.045092    0.000000   -0.330575
      4          1           0       -0.451283   -0.942635   -0.330575
      5          6           0       -0.759694    1.205967   -0.556492
      6          1           0       -0.759694    1.205967   -1.652620
      7          1           0       -1.804785    1.205967   -0.225917
      8          1           0       -0.308410    2.148602   -0.225917
 ---------------------------------------------------------------------
                    Distance matrix (angstroms):
                    1          2          3          4          5
     1  C    0.000000
     2  H    1.096128   0.000000
     3  H    1.096128   1.768530   0.000000
     4  H    1.096128   1.768530   1.768530   0.000000
     5  C    1.530090   2.182349   2.182349   2.182349   0.000000
     6  H    2.182349   3.096306   2.541537   2.541537   1.096128
     7  H    2.182349   2.541537   3.096306   2.541537   1.096128
     8  H    2.182349   2.541537   2.541537   3.096306   1.096128
                    6          7          8
     6  H    0.000000
     7  H    1.768530   0.000000
     8  H    1.768530   1.768530   0.000000
 Symmetry turned off by external request.
 Stoichiometry    C2H6
 Framework group  D3D[C3(C.C),3SGD(H2)]
 Deg. of freedom     3
 Full point group                 D3D     NOp  12
 Rotational constants (GHZ):          80.1636047          19.9061590          19.9061590
 Standard basis: 6-31G(d) (6D, 7F)
    42 basis functions,    80 primitive gaussians,    42 cartesian basis functions
     9 alpha electrons        9 beta electrons
       nuclear repulsion energy        42.1168011421 Hartrees.
 NAtoms=    8 NActive=    8 NUniq=    8 SFac= 1.00D+00 NAtFMM=   60 NAOKFM=F Big=F
 Integral buffers will be    131072 words long.
 Raffenetti 2 integral format.
 Two-electron integral symmetry is turned off.
 Nuclear repulsion after empirical dispersion term =       42.1113938615 Hartrees.
 One-electron integrals computed using PRISM.
 NBasis=    42 RedAO= T EigKep=  8.48D-03  NBF=    42
 NBsUse=    42 1.00D-06 EigRej= -1.00D+00 NBFU=    42
 ExpMin= 1.61D-01 ExpMax= 3.05D+03 ExpMxC= 4.57D+02 IAcc=3 IRadAn=         5 AccDes= 0.00D+00
 Harris functional with IExCor=  402 and IRadAn=       5 diagonalized for initial guess.
 HarFok:  IExCor=  402 AccDes= 0.00D+00 IRadAn=         5 IDoV= 1 UseB2=F ITyADJ=14
 ICtDFT=  3500011 ScaDFX=  1.000000  1.000000  1.000000  1.000000
 FoFCou: FMM=F IPFlag=           0 FMFlag=      100000 FMFlg1=           0
         NFxFlg=           0 DoJE=T BraDBF=F KetDBF=T FulRan=T
         wScrn=  0.000000 ICntrl=       500 IOpCl=  0 I1Cent=   200000004 NGrid=           0
         NMat0=    1 NMatS0=      1 NMatT0=    0 NMatD0=    1 NMtDS0=    0 NMtDT0=    0
 Symmetry not used in FoFCou.
 Keep R1 ints in memory in canonical form, NReq=7324370.
 Requested convergence on RMS density matrix=1.00D-08 within 128 cycles.
 Requested convergence on MAX density matrix=1.00D-06.
 Requested convergence on             energy=1.00D-06.
 No special actions if energy rises.
 Integral accuracy reduced to 1.0D-05 until final iterations.
 Initial convergence to 1.0D-05 achieved.  Increase integral accuracy.
 SCF Done:  E(RB3LYP) =  -79.8358277568     A.U. after    9 cycles
            NFock=  9  Conv=0.12D-08     -V/T= 2.0109

 **********************************************************************

            Population analysis using the SCF Density.

 **********************************************************************

 Alpha  occ. eigenvalues --  -10.17231 -10.17210  -0.74752  -0.61188  -0.43018
 Alpha  occ. eigenvalues --   -0.43018  -0.36279  -0.34006  -0.34006
 Alpha virt. eigenvalues --    0.10474   0.15615   0.16371   0.16371   0.19020
 Alpha virt. eigenvalues --    0.19020   0.24264   0.51295   0.54391   0.54391
 Alpha virt. eigenvalues --    0.63662   0.63662   0.66875   0.88294   0.88294
 Alpha virt. eigenvalues --    0.90646   0.91981   0.91981   0.97938   1.06605
 Alpha virt. eigenvalues --    1.43952   1.52607   1.52607   1.93302   1.98137
 Alpha virt. eigenvalues --    1.98137   2.27087   2.27087   2.33298   2.33298
 Alpha virt. eigenvalues --    2.58755   4.14518   4.36595
          Condensed to atoms (all electrons):
               1          2          3          4          5          6
     1  C    5.012059   0.382791   0.382791   0.382791   0.376191  -0.034616
     2  H    0.382791   0.574867  -0.032339  -0.032339  -0.034616   0.004653
     3  H    0.382791  -0.032339   0.574867  -0.032339  -0.034616  -0.003638
     4  H    0.382791  -0.032339  -0.032339   0.574867  -0.034616  -0.003638
     5  C    0.376191  -0.034616  -0.034616  -0.034616   5.012059   0.382791
     6  H   -0.034616   0.004653  -0.003638  -0.003638   0.382791   0.574867
     7  H   -0.034616  -0.003638   0.004653  -0.003638   0.382791  -0.032339
     8  H   -0.034616  -0.003638  -0.003638   0.004653   0.382791  -0.032339
               7          8
     1  C   -0.034616  -0.034616
     2  H   -0.003638  -0.003638
     3  H    0.004653  -0.003638
     4  H   -0.003638   0.004653
     5  C    0.382791   0.382791
     6  H   -0.032339  -0.032339
     7  H    0.574867  -0.032339
     8  H   -0.032339   0.574867
 Mulliken charges:
               1
     1  C   -0.432775
     2  H    0.144259
     3  H    0.144258
     4  H    0.144258
     5  C   -0.432775
     6  H    0.144259
     7  H    0.144258
     8  H    0.144258
 Sum of Mulliken charges =   0.00000
 Mulliken charges with hydrogens summed into heavy atoms:
               1
     1  C    0.000000
     5  C    0.000000
 Electronic spatial extent (au):  <R**2>=            147.2625
 Charge=              0.0000 electrons
 Dipole moment (field-independent basis, Debye):
    X=              0.0000    Y=              0.0000    Z=              0.0000  Tot=              0.0000
 Quadrupole moment (field-independent basis, Debye-Ang):
   XX=            -14.8416   YY=            -15.0380   ZZ=            -14.7817
   XY=              0.2052   XZ=             -0.0947   YZ=              0.1503
 Traceless Quadrupole moment (field-independent basis, Debye-Ang):
   XX=              0.0455   YY=             -0.1509   ZZ=              0.1054
   XY=              0.2052   XZ=             -0.0947   YZ=              0.1503
 Octapole moment (field-independent basis, Debye-Ang**2):
  XXX=             16.9126  YYY=            -27.2031  ZZZ=             12.3388  XYY=              5.9596
  XXY=             -9.1051  XXZ=              4.2015  XZZ=              5.6675  YZZ=             -8.9968
  YYZ=              4.3655  XYZ=             -0.1713
 Hexadecapole moment (field-independent basis, Debye-Ang**3):
 XXXX=            -55.1231 YYYY=            -98.8426 ZZZZ=            -41.8484 XXXY=             21.7287
 XXXZ=            -11.1822 YYYX=             23.9316 YYYZ=             17.5304 ZZZX=             -9.8013
 ZZZY=             15.5590 XXYY=            -26.8432 XXZZ=            -17.4715 YYZZ=            -24.6116
 XXYZ=              5.8203 YYXZ=             -3.5275 ZZXY=              7.4571
 N-N= 4.211139386151D+01 E-N=-2.680404585552D+02  KE= 7.897613619935D+01
 Variable Step   Value    
 -------- ---- -----------
    16       1   -2.967060
 ---------------------------------------------------------------------------------------------------
                            Z-MATRIX (ANGSTROMS AND DEGREES)
   CD    Cent   Atom    N1       Length/X        N2       Alpha/Y        N3        Beta/Z          J
 ---------------------------------------------------------------------------------------------------
      1      1  C 
      2      2  H        1   1.096128(     1)
      3      3  H        1   1.096128(     2)      2  107.553(     8)
      4      4  H        1   1.096128(     3)      2  107.553(     9)      3  115.583(    14)      0
      5      5  C        1   1.530090(     4)      2  111.328(    10)      3 -122.209(    15)      0
      6      6  H        5   1.096128(     5)      1  111.328(    11)      2 -170.000(    16)      0
      7      7  H        5   1.096128(     6)      1  111.328(    12)      3 -170.000(    17)      0
      8      8  H        5   1.096128(     7)      1  111.328(    13)      4 -170.000(    18)      0
 ---------------------------------------------------------------------------------------------------
                         Z-Matrix orientation:                         
 ---------------------------------------------------------------------
 Center     Atomic      Atomic             Coordinates (Angstroms)
 Number     Number       Type             X           Y           Z
 ---------------------------------------------------------------------
      1          6           0        0.000000    0.000000    0.000000
      2          1           0        0.000000    0.000000    1.096128
      3          1           0        1.045092    0.000000   -0.330575
      4          1           0       -0.451283   -0.942635   -0.330575
      5          6           0       -0.759694    1.205967   -0.556492
      6          1           0       -0.912721    1.116236   -1.638170
      7          1           0       -1.746671    1.305246   -0.090107
      8          1           0       -0.213497    2.139055   -0.376178
 ---------------------------------------------------------------------
                    Distance matrix (angstroms):
                    1          2          3          4          5
     1  C    0.000000
     2  H    1.096128   0.000000
     3  H    1.096128   1.768530   0.000000
     4  H    1.096128   1.768530   1.768530   0.000000
     5  C    1.530090   2.182349   2.182349   2.182349   0.000000
     6  H    2.182349   3.091186   2.605536   2.482273   1.096128
     7  H    2.182349   2.482273   3.091186   2.605536   1.096128
     8  H    2.182349   2.605536   2.482273   3.091186   1.096128
                    6          7          8
     6  H    0.000000
     7  H    1.768530   0.000000
     8  H    1.768530   1.768530   0.000000
 Symmetry turned off by external request.
 Stoichiometry    C2H6
 Framework group  D3[C3(C.C),X(H6)]
 Deg. of freedom     4
 Full point group                 D3      NOp   6
 Rotational constants (GHZ):          80.1636047          19.9061590          19.9061590
 Standard basis: 6-31G(d) (6D, 7F)
    42 basis functions,    80 primitive gaussians,    42 cartesian basis functions
     9 alpha electrons        9 beta electrons
       nuclear repulsion energy        42.1172206199 Hartrees.
 NAtoms=    8 NActive=    8 NUniq=    8 SFac= 1.00D+00 NAtFMM=   60 NAOKFM=F Big=F
 Integral buffers will be    131072 words long.
 Raffenetti 2 integral format.
 Two-electron integral symmetry is turned off.
 Nuclear repulsion after empirical dispersion term =       42.1118138643 Hartrees.
 One-electron integrals computed using PRISM.
 NBasis=    42 RedAO= T EigKep=  8.45D-03  NBF=    42
 NBsUse=    42 1.00D-06 EigRej= -1.00D+00 NBFU=    42
 Initial guess from the checkpoint file:  "example.chk"
 B after Tr=     0.000000    0.000000    0.000000
         Rot=    0.999048    0.021657   -0.034379    0.015864 Ang=   5.00 deg.
 ExpMin= 1.61D-01 ExpMax= 3.05D+03 ExpMxC= 4.57D+02 IAcc=3 IRadAn=         5 AccDes= 0.00D+00
 Harris functional with IExCor=  402 and IRadAn=       5 diagonalized for initial guess.
 HarFok:  IExCor=  402 AccDes= 0.00D+00 IRadAn=         5 IDoV= 1 UseB2=F ITyADJ=14
 ICtDFT=  3500011 ScaDFX=  1.000000  1.000000  1.000000  1.000000
 FoFCou: FMM=F IPFlag=           0 FMFlag=      100000 FMFlg1=           0
         NFxFlg=           0 DoJE=T BraDBF=F KetDBF=T FulRan=T
         wScrn=  0.000000 ICntrl=       500 IOpCl=  0 I1Cent=   200000004 NGrid=           0
         NMat0=    1 NMatS0=      1 NMatT0=    0 NMatD0=    1 NMtDS0=    0 NMtDT0=    0
 Symmetry not used in FoFCou.
 Keep R1 ints in memory in canonical form, NReq=7324370.
 Requested convergence on RMS density matrix=1.00D-08 within 128 cycles.
 Requested convergence on MAX density matrix=1.00D-06.
 Requested convergence on             energy=1.00D-06.
 No special actions if energy rises.
 Integral accuracy reduced to 1.0D-05 until final iterations.
 Initial convergence to 1.0D-05 achieved.  Increase integral accuracy.
 SCF Done:  E(RB3LYP) =  -79.8355136946     A.U. after    8 cycles
            NFock=  8  Conv=0.55D-08     -V/T= 2.0109
 Variable Step   Value    
 -------- ---- -----------
    16       2   -2.792527
 ---------------------------------------------------------------------------------------------------
                            Z-MATRIX (ANGSTROMS AND DEGREES)
   CD    Cent   Atom    N1       Length/X        N2       Alpha/Y        N3        Beta/Z          J
 ---------------------------------------------------------------------------------------------------
      1      1  C 
      2      2  H        1   1.096128(     1)
      3      3  H        1   1.096128(     2)      2  107.553(     8)
      4      4  H        1   1.096128(     3)      2  107.553(     9)      3  115.583(    14)      0
      5      5  C        1   1.530090(     4)      2  111.328(    10)      3 -122.209(    15)      0
      6      6  H        5   1.096128(     5)      1  111.328(    11)      2 -160.000(    16)      0
      7      7  H        5   1.096128(     6)      1  111.328(    12)      3 -160.000(    17)      0
      8      8  H        5   1.096128(     7)      1  111.328(    13)      4 -160.000(    18)      0
 ---------------------------------------------------------------------------------------------------
                         Z-Matrix orientation:                         
 ---------------------------------------------------------------------
 Center     Atomic      Atomic             Coordinates (Angstroms)
 Number     Number       Type             X           Y           Z
 ---------------------------------------------------------------------
      1          6           0        0.000000    0.000000    0.000000
      2          1           0        0.000000    0.000000    1.096128
      3          1           0        1.045092    0.000000   -0.330575
      4          1           0       -0.451283   -0.942635   -0.330575
      5          6           0       -0.759694    1.205967   -0.556492
      6          1           0       -1.067113    1.038779   -1.595260
      7          1           0       -1.664583    1.411054    0.027127
      8          1           0       -0.141194    2.110703   -0.536322
 ---------------------------------------------------------------------
                    Distance matrix (angstroms):
                    1          2          3          4          5
     1  C    0.000000
     2  H    1.096128   0.000000
     3  H    1.096128   1.768530   0.000000
     4  H    1.096128   1.768530   1.768530   0.000000
     5  C    1.530090   2.182349   2.182349   2.182349   0.000000
     6  H    2.182349   3.075932   2.672059   2.429953   1.096128
     7  H    2.182349   2.429953   3.075932   2.672059   1.096128
     8  H    2.182349   2.672059   2.429953   3.075932   1.096128
                    6          7          8
     6  H    0.000000
     7  H    1.768530   0.000000
     8  H    1.768530   1.768530   0.000000
 Symmetry turned off by external request.
 Stoichiometry    C2H6
 Framework group  D3[C3(C.C),X(H6)]
 Deg. of freedom     4
 Full point group                 D3      NOp   6
 Rotational constants (GHZ):          80.1636047          19.9061590          19.9061590
 Standard basis: 6-31G(d) (6D, 7F)
    42 basis functions,    80 primitive gaussians,    42 cartesian basis functions
     9 alpha electrons        9 beta electrons
       nuclear repulsion energy        42.1183690049 Hartrees.
 NAtoms=    8 NActive=    8 NUniq=    8 SFac= 1.00D+00 NAtFMM=   60 NAOKFM=F Big=F
 Integral buffers will be    131072 words long.
 Raffenetti 2 integral format.
 Two-electron integral symmetry is turned off.
 Nuclear repulsion after empirical dispersion term =       42.1129636826 Hartrees.
 One-electron integrals computed using PRISM.
 NBasis=    42 RedAO= T EigKep=  8.39D-03  NBF=    42
 NBsUse=    42 1.00D-06 EigRej= -1.00D+00 NBFU=    42
 Initial guess from the checkpoint file:  "example.chk"
 B after Tr=     0.000000    0.000000    0.000000
         Rot=    0.999048    0.021657   -0.034379    0.015864 Ang=   5.00 deg.
 ExpMin= 1.61D-01 ExpMax= 3.05D+03 ExpMxC= 4.57D+02 IAcc=3 IRadAn=         5 AccDes= 0.00D+00
 Harris functional with IExCor=  402 and IRadAn=       5 diagonalized for initial guess.
 HarFok:  IExCor=  402 AccDes= 0.00D+00 IRadAn=         5 IDoV= 1 UseB2=F ITyADJ=14
 ICtDFT=  3500011 ScaDFX=  1.000000  1.000000  1.000000  1.000000
 FoFCou: FMM=F IPFlag=           0 FMFlag=      100000 FMFlg1=           0
         NFxFlg=           0 DoJE=T BraDBF=F KetDBF=T FulRan=T
         wScrn=  0.000000 ICntrl=       500 IOpCl=  0 I1Cent=   200000004 NGrid=           0
         NMat0=    1 NMatS0=      1 NMatT0=    0 NMatD0=    1 NMtDS0=    0 NMtDT0=    0
 Symmetry not used in FoFCou.
 Keep R1 ints in memory in canonical form, NReq=7324370.
 Requested convergence on RMS density matrix=1.00D-08 within 128 cycles.
 Requested convergence on MAX density matrix=1.00D-06.
 Requested convergence on             energy=1.00D-06.
 No special actions if energy rises.
 Integral accuracy reduced to 1.0D-05 until final iterations.
 Initial convergence to 1.0D-05 achieved.  Increase integral accuracy.
 SCF Done:  E(RB3LYP) =  -79.8346528296     A.U. after    8 cycles
            NFock=  8  Conv=0.68D-08     -V/T= 2.0108
 Variable Step   Value    
 -------- ---- -----------
    16       3   -2.617994
 ---------------------------------------------------------------------------------------------------
                            Z-MATRIX (ANGSTROMS AND DEGREES)
   CD    Cent   Atom    N1       Length/X        N2       Alpha/Y        N3        Beta/Z          J
 ---------------------------------------------------------------------------------------------------
      1      1  C 
      2      2  H        1   1.096128(     1)
      3      3  H        1   1.096128(     2)      2  107.553(     8)
      4      4  H        1   1.096128(     3)      2  107.553(     9)      3  115.583(    14)      0
      5      5  C        1   1.530090(     4)      2  111.328(    10)      3 -122.209(    15)      0
      6      6  H        5   1.096128(     5)      1  111.328(    11)      2 -150.000(    16)      0
      7      7  H        5   1.096128(     6)      1  111.328(    12)      3 -150.000(    17)      0
      8      8  H        5   1.096128(     7)      1  111.328(    13)      4 -150.000(    18)      0
 ---------------------------------------------------------------------------------------------------
                         Z-Matrix orientation:                         
 ---------------------------------------------------------------------
 Center     Atomic      Atomic             Coordinates (Angstroms)
 Number     Number       Type             X           Y           Z
 ---------------------------------------------------------------------
      1          6           0        0.000000    0.000000    0.000000
      2          1           0        0.000000    0.000000    1.096128
      3          1           0        1.045092    0.000000   -0.330575
      4          1           0       -0.451283   -0.942635   -0.330575
      5          6           0       -0.759694    1.205967   -0.556492
      6          1           0       -1.218178    0.975949   -1.525192
      7          1           0       -1.561014    1.520179    0.122222
      8          1           0       -0.093697    2.064409   -0.701485
 ---------------------------------------------------------------------
                    Distance matrix (angstroms):
                    1          2          3          4          5
     1  C    0.000000
     2  H    1.096128   0.000000
     3  H    1.096128   1.768530   0.000000
     4  H    1.096128   1.768530   1.768530   0.000000
     5  C    1.530090   2.182349   2.182349   2.182349   0.000000
     6  H    2.182349   3.050861   2.738974   2.386671   1.096128
     7  H    2.182349   2.386671   3.050861   2.738974   1.096128
     8  H    2.182349   2.738974   2.386671   3.050861   1.096128
                    6          7          8
     6  H    0.000000
     7  H    1.768530   0.000000
     8  H    1.768530   1.768530   0.000000
 Symmetry turned off by external request.
 Stoichiometry    C2H6
 Framework group  D3[C3(C.C),X(H6)]
 Deg. of freedom     4
 Full point group                 D3      NOp   6
 Rotational constants (GHZ):          80.1636047          19.9061590          19.9061590
 Standard basis: 6-31G(d) (6D, 7F)
    42 basis functions,    80 primitive gaussians,    42 cartesian basis functions
     9 alpha electrons        9 beta electrons
       nuclear repulsion energy        42.1199433150 Hartrees.
 NAtoms=    8 NActive=    8 NUniq=    8 SFac= 1.00D+00 NAtFMM=   60 NAOKFM=F Big=F
 Integral buffers will be    131072 words long.
 Raffenetti 2 integral format.
 Two-electron integral symmetry is turned off.
 Nuclear repulsion after empirical dispersion term =       42.1145399480 Hartrees.
 One-electron integrals computed using PRISM.
 NBasis=    42 RedAO= T EigKep=  8.31D-03  NBF=    42
 NBsUse=    42 1.00D-06 EigRej= -1.00D+00 NBFU=    42
 Initial guess from the checkpoint file:  "example.chk"
 B after Tr=     0.000000    0.000000    0.000000
         Rot=    0.999048    0.021657   -0.034379    0.015864 Ang=   5.00 deg.
 ExpMin= 1.61D-01 ExpMax= 3.05D+03 ExpMxC= 4.57D+02 IAcc=3 IRadAn=         5 AccDes= 0.00D+00
 Harris functional with IExCor=  402 and IRadAn=       5 diagonalized for initial guess.
 HarFok:  IExCor=  402 AccDes= 0.00D+00 IRadAn=         5 IDoV= 1 UseB2=F ITyADJ=14
 ICtDFT=  3500011 ScaDFX=  1.000000  1.000000  1.000000  1.000000
 FoFCou: FMM=F IPFlag=           0 FMFlag=      100000 FMFlg1=           0
         NFxFlg=           0 DoJE=T BraDBF=F KetDBF=T FulRan=T
         wScrn=  0.000000 ICntrl=       500 IOpCl=  0 I1Cent=   200000004 NGrid=           0
         NMat0=    1 NMatS0=      1 NMatT0=    0 NMatD0=    1 NMtDS0=    0 NMtDT0=    0
 Symmetry not used in FoFCou.
 Keep R1 ints in memory in canonical form, NReq=7324370.
 Requested convergence on RMS density matrix=1.00D-08 within 128 cycles.
 Requested convergence on MAX density matrix=1.00D-06.
 Requested convergence on             energy=1.00D-06.
 No special actions if energy rises.
 Integral accuracy reduced to 1.0D-05 until final iterations.
 Initial convergence to 1.0D-05 achieved.  Increase integral accuracy.
 SCF Done:  E(RB3LYP) =  -79.8334703813     A.U. after    9 cycles
            NFock=  9  Conv=0.50D-09     -V/T= 2.0108
 Variable Step   Value    
 -------- ---- -----------
    16       4   -2.443461
 ---------------------------------------------------------------------------------------------------
                            Z-MATRIX (ANGSTROMS AND DEGREES)
   CD    Cent   Atom    N1       Length/X        N2       Alpha/Y        N3        Beta/Z          J
 ---------------------------------------------------------------------------------------------------
      1      1  C 
      2      2  H        1   1.096128(     1)
      3      3  H        1   1.096128(     2)      2  107.553(     8)
      4      4  H        1   1.096128(     3)      2  107.553(     9)      3  115.583(    14)      0
      5      5  C        1   1.530090(     4)      2  111.328(    10)      3 -122.209(    15)      0
      6      6  H        5   1.096128(     5)      1  111.328(    11)      2 -140.000(    16)      0
      7      7  H        5   1.096128(     6)      1  111.328(    12)      3 -140.000(    17)      0
      8      8  H        5   1.096128(     7)      1  111.328(    13)      4 -140.000(    18)      0
 ---------------------------------------------------------------------------------------------------
                         Z-Matrix orientation:                         
 ---------------------------------------------------------------------
 Center     Atomic      Atomic             Coordinates (Angstroms)
 Number     Number       Type             X           Y           Z
 ---------------------------------------------------------------------
      1          6           0        0.000000    0.000000    0.000000
      2          1           0        0.000000    0.000000    1.096128
      3          1           0        1.045092    0.000000   -0.330575
      4          1           0       -0.451283   -0.942635   -0.330575
      5          6           0       -0.759694    1.205967   -0.556492
      6          1           0       -1.361327    0.929654   -1.430097
      7          1           0       -1.439111    1.629303    0.192290
      8          1           0       -0.072451    2.001579   -0.866648
 ---------------------------------------------------------------------
                    Distance matrix (angstroms):
                    1          2          3          4          5
     1  C    0.000000
     2  H    1.096128   0.000000
     3  H    1.096128   1.768530   0.000000
     4  H    1.096128   1.768530   1.768530   0.000000
     5  C    1.530090   2.182349   2.182349   2.182349   0.000000
     6  H    2.182349   3.016501   2.804292   2.354271   1.096128
     7  H    2.182349   2.354271   3.016501   2.804292   1.096128
     8  H    2.182349   2.804292   2.354271   3.016501   1.096128
                    6          7          8
     6  H    0.000000
     7  H    1.768530   0.000000
     8  H    1.768530   1.768530   0.000000
 Symmetry turned off by external request.
 Stoichiometry    C2H6
 Framework group  D3[C3(C.C),X(H6)]
 Deg. of freedom     4
 Full point group                 D3      NOp   6
 Rotational constants (GHZ):          80.1636047          19.9061590          19.9061590
 Standard basis: 6-31G(d) (6D, 7F)
    42 basis functions,    80 primitive gaussians,    42 cartesian basis functions
     9 alpha electrons        9 beta electrons
       nuclear repulsion energy        42.1215241176 Hartrees.
 NAtoms=    8 NActive=    8 NUniq=    8 SFac= 1.00D+00 NAtFMM=   60 NAOKFM=F Big=F
 Integral buffers will be    131072 words long.
 Raffenetti 2 integral format.
 Two-electron integral symmetry is turned off.
 Nuclear repulsion after empirical dispersion term =       42.1161227029 Hartrees.
 One-electron integrals computed using PRISM.
 NBasis=    42 RedAO= T EigKep=  8.22D-03  NBF=    42
 NBsUse=    42 1.00D-06 EigRej= -1.00D+00 NBFU=    42
 Initial guess from the checkpoint file:  "example.chk"
 B after Tr=     0.000000    0.000000    0.000000
         Rot=    0.999048    0.021657   -0.034379    0.015864 Ang=   5.00 deg.
 ExpMin= 1.61D-01 ExpMax= 3.05D+03 ExpMxC= 4.57D+02 IAcc=3 IRadAn=         5 AccDes= 0.00D+00
 Harris functional with IExCor=  402 and IRadAn=       5 diagonalized for initial guess.
 HarFok:  IExCor=  402 AccDes= 0.00D+00 IRadAn=         5 IDoV= 1 UseB2=F ITyADJ=14
 ICtDFT=  3500011 ScaDFX=  1.000000  1.000000  1.000000  1.000000
 FoFCou: FMM=F IPFlag=           0 FMFlag=      100000 FMFlg1=           0
         NFxFlg=           0 DoJE=T BraDBF=F KetDBF=T FulRan=T
         wScrn=  0.000000 ICntrl=       500 IOpCl=  0 I1Cent=   200000004 NGrid=           0
         NMat0=    1 NMatS0=      1 NMatT0=    0 NMatD0=    1 NMtDS0=    0 NMtDT0=    0
 Symmetry not used in FoFCou.
 Keep R1 ints in memory in canonical form, NReq=7324370.
 Requested convergence on RMS density matrix=1.00D-08 within 128 cycles.
 Requested convergence on MAX density matrix=1.00D-06.
 Requested convergence on             energy=1.00D-06.
 No special actions if energy rises.
 Integral accuracy reduced to 1.0D-05 until final iterations.
 Initial convergence to 1.0D-05 achieved.  Increase integral accuracy.
 SCF Done:  E(RB3LYP) =  -79.8322805669     A.U. after    8 cycles
            NFock=  8  Conv=0.87D-08     -V/T= 2.0107
 Variable Step   Value    
 -------- ---- -----------
    16       5   -2.268928
 ---------------------------------------------------------------------------------------------------
                            Z-MATRIX (ANGSTROMS AND DEGREES)
   CD    Cent   Atom    N1       Length/X        N2       Alpha/Y        N3        Beta/Z          J
 ---------------------------------------------------------------------------------------------------
      1      1  C 
      2      2  H        1   1.096128(     1)
      3      3  H        1   1.096128(     2)      2  107.553(     8)
      4      4  H        1   1.096128(     3)      2  107.553(     9)      3  115.583(    14)      0
      5      5  C        1   1.530090(     4)      2  111.328(    10)      3 -122.209(    15)      0
      6      6  H        5   1.096128(     5)      1  111.328(    11)      2 -130.000(    16)      0
      7      7  H        5   1.096128(     6)      1  111.328(    12)      3 -130.000(    17)      0
      8      8  H        5   1.096128(     7)      1  111.328(    13)      4 -130.000(    18)      0
 ---------------------------------------------------------------------------------------------------
                         Z-Matrix orientation:                         
 ---------------------------------------------------------------------
 Center     Atomic      Atomic             Coordinates (Angstroms)
 Number     Number       Type             X           Y           Z
 ---------------------------------------------------------------------
      1          6           0        0.000000    0.000000    0.000000
      2          1           0        0.000000    0.000000    1.096128
      3          1           0        1.045092    0.000000   -0.330575
      4          1           0       -0.451283   -0.942635   -0.330575
      5          6           0       -0.759694    1.205967   -0.556492
      6          1           0       -1.492210    0.901303   -1.312863
      7          1           0       -1.302579    1.735112    0.235200
      8          1           0       -0.078101    1.924121   -1.026792
 ---------------------------------------------------------------------
                    Distance matrix (angstroms):
                    1          2          3          4          5
     1  C    0.000000
     2  H    1.096128   0.000000
     3  H    1.096128   1.768530   0.000000
     4  H    1.096128   1.768530   1.768530   0.000000
     5  C    1.530090   2.182349   2.182349   2.182349   0.000000
     6  H    2.182349   2.973596   2.866206   2.334207   1.096128
     7  H    2.182349   2.334207   2.973596   2.866206   1.096128
     8  H    2.182349   2.866206   2.334207   2.973596   1.096128
                    6          7          8
     6  H    0.000000
     7  H    1.768530   0.000000
     8  H    1.768530   1.768530   0.000000
 Symmetry turned off by external request.
 Stoichiometry    C2H6
 Framework group  D3[C3(C.C),X(H6)]
 Deg. of freedom     4
 Full point group                 D3      NOp   6
 Rotational constants (GHZ):          80.1636047          19.9061590          19.9061590
 Standard basis: 6-31G(d) (6D, 7F)
    42 basis functions,    80 primitive gaussians,    42 cartesian basis functions
     9 alpha electrons        9 beta electrons
       nuclear repulsion energy        42.1226854881 Hartrees.
 NAtoms=    8 NActive=    8 NUniq=    8 SFac= 1.00D+00 NAtFMM=   60 NAOKFM=F Big=F
 Integral buffers will be    131072 words long.
 Raffenetti 2 integral format.
 Two-electron integral symmetry is turned off.
 Nuclear repulsion after empirical dispersion term =       42.1172855005 Hartrees.
 One-electron integrals computed using PRISM.
 NBasis=    42 RedAO= T EigKep=  8.16D-03  NBF=    42
 NBsUse=    42 1.00D-06 EigRej= -1.00D+00 NBFU=    42
 Initial guess from the checkpoint file:  "example.chk"
 B after Tr=     0.000000    0.000000    0.000000
         Rot=    0.999048    0.021657   -0.034379    0.015864 Ang=   5.00 deg.
 ExpMin= 1.61D-01 ExpMax= 3.05D+03 ExpMxC= 4.57D+02 IAcc=3 IRadAn=         5 AccDes= 0.00D+00
 Harris functional with IExCor=  402 and IRadAn=       5 diagonalized for initial guess.
 HarFok:  IExCor=  402 AccDes= 0.00D+00 IRadAn=         5 IDoV= 1 UseB2=F ITyADJ=14
 ICtDFT=  3500011 ScaDFX=  1.000000  1.000000  1.000000  1.000000
 FoFCou: FMM=F IPFlag=           0 FMFlag=      100000 FMFlg1=           0
         NFxFlg=           0 DoJE=T BraDBF=F KetDBF=T FulRan=T
         wScrn=  0.000000 ICntrl=       500 IOpCl=  0 I1Cent=   200000004 NGrid=           0
         NMat0=    1 NMatS0=      1 NMatT0=    0 NMatD0=    1 NMtDS0=    0 NMtDT0=    0
 Symmetry not used in FoFCou.
 Keep R1 ints in memory in canonical form, NReq=7324370.
 Requested convergence on RMS density matrix=1.00D-08 within 128 cycles.
 Requested convergence on MAX density matrix=1.00D-06.
 Requested convergence on             energy=1.00D-06.
 No special actions if energy rises.
 Integral accuracy reduced to 1.0D-05 until final iterations.
 Initial convergence to 1.0D-05 achieved.  Increase integral accuracy.
 SCF Done:  E(RB3LYP) =  -79.8314049224     A.U. after    9 cycles
            NFock=  9  Conv=0.96D-09     -V/T= 2.0107
 Variable Step   Value    
 -------- ---- -----------
    16       6   -2.094395
 ---------------------------------------------------------------------------------------------------
                            Z-MATRIX (ANGSTROMS AND DEGREES)
   CD    Cent   Atom    N1       Length/X        N2       Alpha/Y        N3        Beta/Z          J
 ---------------------------------------------------------------------------------------------------
      1      1  C 
      2      2  H        1   1.096128(     1)
      3      3  H        1   1.096128(     2)      2  107.553(     8)
      4      4  H        1   1.096128(     3)      2  107.553(     9)      3  115.583(    14)      0
      5      5  C        1   1.530090(     4)      2  111.328(    10)      3 -122.209(    15)      0
      6      6  H        5   1.096128(     5)      1  111.328(    11)      2 -120.000(    16)      0
      7      7  H        5   1.096128(     6)      1  111.328(    12)      3 -120.000(    17)      0
      8      8  H        5   1.096128(     7)      1  111.328(    13)      4 -120.000(    18)      0
 ---------------------------------------------------------------------------------------------------
                         Z-Matrix orientation:                         
 ---------------------------------------------------------------------
 Center     Atomic      Atomic             Coordinates (Angstroms)
 Number     Number       Type             X           Y           Z
 ---------------------------------------------------------------------
      1          6           0        0.000000    0.000000    0.000000
      2          1           0        0.000000    0.000000    1.096128
      3          1           0        1.045092    0.000000   -0.330575
      4          1           0       -0.451283   -0.942635   -0.330575
      5          6           0       -0.759694    1.205967   -0.556492
      6          1           0       -1.606849    0.891756   -1.177053
      7          1           0       -1.155566    1.834390    0.249650
      8          1           0       -0.110474    1.834390   -1.177053
 ---------------------------------------------------------------------
                    Distance matrix (angstroms):
                    1          2          3          4          5
     1  C    0.000000
     2  H    1.096128   0.000000
     3  H    1.096128   1.768530   0.000000
     4  H    1.096128   1.768530   1.768530   0.000000
     5  C    1.530090   2.182349   2.182349   2.182349   0.000000
     6  H    2.182349   2.923105   2.923105   2.327412   1.096128
     7  H    2.182349   2.327412   2.923105   2.923105   1.096128
     8  H    2.182349   2.923105   2.327412   2.923105   1.096128
                    6          7          8
     6  H    0.000000
     7  H    1.768530   0.000000
     8  H    1.768530   1.768530   0.000000
 Symmetry turned off by external request.
 Stoichiometry    C2H6
 Framework group  D3H[C3(C.C),3SGV(H2)]
 Deg. of freedom     3
 Full point group                 D3H     NOp  12
 Rotational constants (GHZ):          80.1636047          19.9061590          19.9061590
 Standard basis: 6-31G(d) (6D, 7F)
    42 basis functions,    80 primitive gaussians,    42 cartesian basis functions
     9 alpha electrons        9 beta electrons
       nuclear repulsion energy        42.1231114587 Hartrees.
 NAtoms=    8 NActive=    8 NUniq=    8 SFac= 1.00D+00 NAtFMM=   60 NAOKFM=F Big=F
 Integral buffers will be    131072 words long.
 Raffenetti 2 integral format.
 Two-electron integral symmetry is turned off.
 Nuclear repulsion after empirical dispersion term =       42.1177119931 Hartrees.
 One-electron integrals computed using PRISM.
 NBasis=    42 RedAO= T EigKep=  8.13D-03  NBF=    42
 NBsUse=    42 1.00D-06 EigRej= -1.00D+00 NBFU=    42
 Initial guess from the checkpoint file:  "example.chk"
 B after Tr=     0.000000    0.000000    0.000000
         Rot=    0.999048    0.021657   -0.034379    0.015864 Ang=   5.00 deg.
 ExpMin= 1.61D-01 ExpMax= 3.05D+03 ExpMxC= 4.57D+02 IAcc=3 IRadAn=         5 AccDes= 0.00D+00
 Harris functional with IExCor=  402 and IRadAn=       5 diagonalized for initial guess.
 HarFok:  IExCor=  402 AccDes= 0.00D+00 IRadAn=         5 IDoV= 1 UseB2=F ITyADJ=14
 ICtDFT=  3500011 ScaDFX=  1.000000  1.000000  1.000000  1.000000
 FoFCou: FMM=F IPFlag=           0 FMFlag=      100000 FMFlg1=           0
         NFxFlg=           0 DoJE=T BraDBF=F KetDBF=T FulRan=T
         wScrn=  0.000000 ICntrl=       500 IOpCl=  0 I1Cent=   200000004 NGrid=           0
         NMat0=    1 NMatS0=      1 NMatT0=    0 NMatD0=    1 NMtDS0=    0 NMtDT0=    0
 Symmetry not used in FoFCou.
 Keep R1 ints in memory in canonical form, NReq=7324370.
 Requested convergence on RMS density matrix=1.00D-08 within 128 cycles.
 Requested convergence on MAX density matrix=1.00D-06.
 Requested convergence on             energy=1.00D-06.
 No special actions if energy rises.
 Integral accuracy reduced to 1.0D-05 until final iterations.
 Initial convergence to 1.0D-05 achieved.  Increase integral accuracy.
 SCF Done:  E(RB3LYP) =  -79.8310832481     A.U. after    8 cycles
            NFock=  8  Conv=0.83D-08     -V/T= 2.0107
 Variable Step   Value    
 -------- ---- -----------
    16       7   -1.919862
 ---------------------------------------------------------------------------------------------------
                            Z-MATRIX (ANGSTROMS AND DEGREES)
   CD    Cent   Atom    N1       Length/X        N2       Alpha/Y        N3        Beta/Z          J
 ---------------------------------------------------------------------------------------------------
      1      1  C 
      2      2  H        1   1.096128(     1)
      3      3  H        1   1.096128(     2)      2  107.553(     8)
      4      4  H        1   1.096128(     3)      2  107.553(     9)      3  115.583(    14)      0
      5      5  C        1   1.530090(     4)      2  111.328(    10)      3 -122.209(    15)      0
      6      6  H        5   1.096128(     5)      1  111.328(    11)      2 -110.000(    16)      0
      7      7  H        5   1.096128(     6)      1  111.328(    12)      3 -110.000(    17)      0
      8      8  H        5   1.096128(     7)      1  111.328(    13)      4 -110.000(    18)      0
 ---------------------------------------------------------------------------------------------------
                         Z-Matrix orientation:                         
 ---------------------------------------------------------------------
 Center     Atomic      Atomic             Coordinates (Angstroms)
 Number     Number       Type             X           Y           Z
 ---------------------------------------------------------------------
      1          6           0        0.000000    0.000000    0.000000
      2          1           0        0.000000    0.000000    1.096128
      3          1           0        1.045092    0.000000   -0.330575
      4          1           0       -0.451283   -0.942635   -0.330575
      5          6           0       -0.759694    1.205967   -0.556492
      6          1           0       -1.701763    0.901303   -1.026792
      7          1           0       -1.002538    1.924121    0.235200
      8          1           0       -0.168588    1.735112   -1.312863
 ---------------------------------------------------------------------
                    Distance matrix (angstroms):
                    1          2          3          4          5
     1  C    0.000000
     2  H    1.096128   0.000000
     3  H    1.096128   1.768530   0.000000
     4  H    1.096128   1.768530   1.768530   0.000000
     5  C    1.530090   2.182349   2.182349   2.182349   0.000000
     6  H    2.182349   2.866206   2.973596   2.334207   1.096128
     7  H    2.182349   2.334207   2.866206   2.973596   1.096128
     8  H    2.182349   2.973596   2.334207   2.866206   1.096128
                    6          7          8
     6  H    0.000000
     7  H    1.768530   0.000000
     8  H    1.768530   1.768530   0.000000
 Symmetry turned off by external request.
 Stoichiometry    C2H6
 Framework group  D3[C3(C.C),X(H6)]
 Deg. of freedom     4
 Full point group                 D3      NOp   6
 Rotational constants (GHZ):          80.1636047          19.9061590          19.9061590
 Standard basis: 6-31G(d) (6D, 7F)
    42 basis functions,    80 primitive gaussians,    42 cartesian basis functions
     9 alpha electrons        9 beta electrons
       nuclear repulsion energy        42.1226854881 Hartrees.
 NAtoms=    8 NActive=    8 NUniq=    8 SFac= 1.00D+00 NAtFMM=   60 NAOKFM=F Big=F
 Integral buffers will be    131072 words long.
 Raffenetti 2 integral format.
 Two-electron integral symmetry is turned off.
 Nuclear repulsion after empirical dispersion term =       42.1172855005 Hartrees.
 One-electron integrals computed using PRISM.
 NBasis=    42 RedAO= T EigKep=  8.16D-03  NBF=    42
 NBsUse=    42 1.00D-06 EigRej= -1.00D+00 NBFU=    42
 Initial guess from the checkpoint file:  "example.chk"
 B after Tr=     0.000000    0.000000    0.000000
         Rot=    0.999048    0.021657   -0.034379    0.015864 Ang=   5.00 deg.
 ExpMin= 1.61D-01 ExpMax= 3.05D+03 ExpMxC= 4.57D+02 IAcc=3 IRadAn=         5 AccDes= 0.00D+00
 Harris functional with IExCor=  402 and IRadAn=       5 diagonalized for initial guess.
 HarFok:  IExCor=  402 AccDes= 0.00D+00 IRadAn=         5 IDoV= 1 UseB2=F ITyADJ=14
 ICtDFT=  3500011 ScaDFX=  1.000000  1.000000  1.000000  1.000000
 FoFCou: FMM=F IPFlag=           0 FMFlag=      100000 FMFlg1=           0
         NFxFlg=           0 DoJE=T BraDBF=F KetDBF=T FulRan=T
         wScrn=  0.000000 ICntrl=       500 IOpCl=  0 I1Cent=   200000004 NGrid=           0
         NMat0=    1 NMatS0=      1 NMatT0=    0 NMatD0=    1 NMtDS0=    0 NMtDT0=    0
 Symmetry not used in FoFCou.
 Keep R1 ints in memory in canonical form, NReq=7324370.
 Requested convergence on RMS density matrix=1.00D-08 within 128 cycles.
 Requested convergence on MAX density matrix=1.00D-06.
 Requested convergence on             energy=1.00D-06.
 No special actions if energy rises.
 Integral accuracy reduced to 1.0D-05 until final iterations.
 Initial convergence to 1.0D-05 achieved.  Increase integral accuracy.
 SCF Done:  E(RB3LYP) =  -79.8314049843     A.U. after    8 cycles
            NFock=  8  Conv=0.37D-08     -V/T= 2.0107
 Variable Step   Value    
 -------- ---- -----------
    16       8   -1.745329
 ---------------------------------------------------------------------------------------------------
                            Z-MATRIX (ANGSTROMS AND DEGREES)
   CD    Cent   Atom    N1       Length/X        N2       Alpha/Y        N3        Beta/Z          J
 ---------------------------------------------------------------------------------------------------
      1      1  C 
      2      2  H        1   1.096128(     1)
      3      3  H        1   1.096128(     2)      2  107.553(     8)
      4      4  H        1   1.096128(     3)      2  107.553(     9)      3  115.583(    14)      0
      5      5  C        1   1.530090(     4)      2  111.328(    10)      3 -122.209(    15)      0
      6      6  H        5   1.096128(     5)      1  111.328(    11)      2 -100.000(    16)      0
      7      7  H        5   1.096128(     6)      1  111.328(    12)      3 -100.000(    17)      0
      8      8  H        5   1.096128(     7)      1  111.328(    13)      4 -100.000(    18)      0
 ---------------------------------------------------------------------------------------------------
                         Z-Matrix orientation:                         
 ---------------------------------------------------------------------
 Center     Atomic      Atomic             Coordinates (Angstroms)
 Number     Number       Type             X           Y           Z
 ---------------------------------------------------------------------
      1          6           0        0.000000    0.000000    0.000000
      2          1           0        0.000000    0.000000    1.096128
      3          1           0        1.045092    0.000000   -0.330575
      4          1           0       -0.451283   -0.942635   -0.330575
      5          6           0       -0.759694    1.205967   -0.556492
      6          1           0       -1.774066    0.929654   -0.866648
      7          1           0       -0.848146    2.001579    0.192290
      8          1           0       -0.250677    1.629303   -1.430097
 ---------------------------------------------------------------------
                    Distance matrix (angstroms):
                    1          2          3          4          5
     1  C    0.000000
     2  H    1.096128   0.000000
     3  H    1.096128   1.768530   0.000000
     4  H    1.096128   1.768530   1.768530   0.000000
     5  C    1.530090   2.182349   2.182349   2.182349   0.000000
     6  H    2.182349   2.804292   3.016501   2.354271   1.096128
     7  H    2.182349   2.354271   2.804292   3.016501   1.096128
     8  H    2.182349   3.016501   2.354271   2.804292   1.096128
                    6          7          8
     6  H    0.000000
     7  H    1.768530   0.000000
     8  H    1.768530   1.768530   0.000000
 Symmetry turned off by external request.
 Stoichiometry    C2H6
 Framework group  D3[C3(C.C),X(H6)]
 Deg. of freedom     4
 Full point group                 D3      NOp   6
 Rotational constants (GHZ):          80.1636047          19.9061590          19.9061590
 Standard basis: 6-31G(d) (6D, 7F)
    42 basis functions,    80 primitive gaussians,    42 cartesian basis functions
     9 alpha electrons        9 beta electrons
       nuclear repulsion energy        42.1215241176 Hartrees.
 NAtoms=    8 NActive=    8 NUniq=    8 SFac= 1.00D+00 NAtFMM=   60 NAOKFM=F Big=F
 Integral buffers will be    131072 words long.
 Raffenetti 2 integral format.
 Two-electron integral symmetry is turned off.
 Nuclear repulsion after empirical dispersion term =       42.1161227029 Hartrees.
 One-electron integrals computed using PRISM.
 NBasis=    42 RedAO= T EigKep=  8.22D-03  NBF=    42
 NBsUse=    42 1.00D-06 EigRej= -1.00D+00 NBFU=    42
 Initial guess from the checkpoint file:  "example.chk"
 B after Tr=     0.000000    0.000000    0.000000
         Rot=    0.999048    0.021657   -0.034379    0.015864 Ang=   5.00 deg.
 ExpMin= 1.61D-01 ExpMax= 3.05D+03 ExpMxC= 4.57D+02 IAcc=3 IRadAn=         5 AccDes= 0.00D+00
 Harris functional with IExCor=  402 and IRadAn=       5 diagonalized for initial guess.
 HarFok:  IExCor=  402 AccDes= 0.00D+00 IRadAn=         5 IDoV= 1 UseB2=F ITyADJ=14
 ICtDFT=  3500011 ScaDFX=  1.000000  1.000000  1.000000  1.000000
 FoFCou: FMM=F IPFlag=           0 FMFlag=      100000 FMFlg1=           0
         NFxFlg=           0 DoJE=T BraDBF=F KetDBF=T FulRan=T
         wScrn=  0.000000 ICntrl=       500 IOpCl=  0 I1Cent=   200000004 NGrid=           0
         NMat0=    1 NMatS0=      1 NMatT0=    0 NMatD0=    1 NMtDS0=    0 NMtDT0=    0
 Symmetry not used in FoFCou.
 Keep R1 ints in memory in canonical form, NReq=7324370.
 Requested convergence on RMS density matrix=1.00D-08 within 128 cycles.
 Requested convergence on MAX density matrix=1.00D-06.
 Requested convergence on             energy=1.00D-06.
 No special actions if energy rises.
 Integral accuracy reduced to 1.0D-05 until final iterations.
 Initial convergence to 1.0D-05 achieved.  Increase integral accuracy.
 SCF Done:  E(RB3LYP) =  -79.8322804168     A.U. after    8 cycles
            NFock=  8  Conv=0.50D-08     -V/T= 2.0107
 Variable Step   Value    
 -------- ---- -----------
    16       9   -1.570796
 ---------------------------------------------------------------------------------------------------
                            Z-MATRIX (ANGSTROMS AND DEGREES)
   CD    Cent   Atom    N1       Length/X        N2       Alpha/Y        N3        Beta/Z          J
 ---------------------------------------------------------------------------------------------------
      1      1  C 
      2      2  H        1   1.096128(     1)
      3      3  H        1   1.096128(     2)      2  107.553(     8)
      4      4  H        1   1.096128(     3)      2  107.553(     9)      3  115.583(    14)      0
      5      5  C        1   1.530090(     4)      2  111.328(    10)      3 -122.209(    15)      0
      6      6  H        5   1.096128(     5)      1  111.328(    11)      2  -90.000(    16)      0
      7      7  H        5   1.096128(     6)      1  111.328(    12)      3  -90.000(    17)      0
      8      8  H        5   1.096128(     7)      1  111.328(    13)      4  -90.000(    18)      0
 ---------------------------------------------------------------------------------------------------
                         Z-Matrix orientation:                         
 ---------------------------------------------------------------------
 Center     Atomic      Atomic             Coordinates (Angstroms)
 Number     Number       Type             X           Y           Z
 ---------------------------------------------------------------------
      1          6           0        0.000000    0.000000    0.000000
      2          1           0        0.000000    0.000000    1.096128
      3          1           0        1.045092    0.000000   -0.330575
      4          1           0       -0.451283   -0.942635   -0.330575
      5          6           0       -0.759694    1.205967   -0.556492
      6          1           0       -1.821562    0.975949   -0.701485
      7          1           0       -0.697081    2.064409    0.122222
      8          1           0       -0.354246    1.520179   -1.525192
 ---------------------------------------------------------------------
                    Distance matrix (angstroms):
                    1          2          3          4          5
     1  C    0.000000
     2  H    1.096128   0.000000
     3  H    1.096128   1.768530   0.000000
     4  H    1.096128   1.768530   1.768530   0.000000
     5  C    1.530090   2.182349   2.182349   2.182349   0.000000
     6  H    2.182349   2.738974   3.050861   2.386671   1.096128
     7  H    2.182349   2.386671   2.738974   3.050861   1.096128
     8  H    2.182349   3.050861   2.386671   2.738974   1.096128
                    6          7          8
     6  H    0.000000
     7  H    1.768530   0.000000
     8  H    1.768530   1.768530   0.000000
 Symmetry turned off by external request.
 Stoichiometry    C2H6
 Framework group  D3[C3(C.C),X(H6)]
 Deg. of freedom     4
 Full point group                 D3      NOp   6
 Rotational constants (GHZ):          80.1636047          19.9061590          19.9061590
 Standard basis: 6-31G(d) (6D, 7F)
    42 basis functions,    80 primitive gaussians,    42 cartesian basis functions
     9 alpha electrons        9 beta electrons
       nuclear repulsion energy        42.1199433150 Hartrees.
 NAtoms=    8 NActive=    8 NUniq=    8 SFac= 1.00D+00 NAtFMM=   60 NAOKFM=F Big=F
 Integral buffers will be    131072 words long.
 Raffenetti 2 integral format.
 Two-electron integral symmetry is turned off.
 Nuclear repulsion after empirical dispersion term =       42.1145399480 Hartrees.
 One-electron integrals computed using PRISM.
 NBasis=    42 RedAO= T EigKep=  8.31D-03  NBF=    42
 NBsUse=    42 1.00D-06 EigRej= -1.00D+00 NBFU=    42
 Initial guess from the checkpoint file:  "example.chk"
 B after Tr=     0.000000    0.000000    0.000000
         Rot=    0.999048    0.021657   -0.034379    0.015864 Ang=   5.00 deg.
 ExpMin= 1.61D-01 ExpMax= 3.05D+03 ExpMxC= 4.57D+02 IAcc=3 IRadAn=         5 AccDes= 0.00D+00
 Harris functional with IExCor=  402 and IRadAn=       5 diagonalized for initial guess.
 HarFok:  IExCor=  402 AccDes= 0.00D+00 IRadAn=         5 IDoV= 1 UseB2=F ITyADJ=14
 ICtDFT=  3500011 ScaDFX=  1.000000  1.000000  1.000000  1.000000
 FoFCou: FMM=F IPFlag=           0 FMFlag=      100000 FMFlg1=           0
         NFxFlg=           0 DoJE=T BraDBF=F KetDBF=T FulRan=T
         wScrn=  0.000000 ICntrl=       500 IOpCl=  0 I1Cent=   200000004 NGrid=           0
         NMat0=    1 NMatS0=      1 NMatT0=    0 NMatD0=    1 NMtDS0=    0 NMtDT0=    0
 Symmetry not used in FoFCou.
 Keep R1 ints in memory in canonical form, NReq=7324370.
 Requested convergence on RMS density matrix=1.00D-08 within 128 cycles.
 Requested convergence on MAX density matrix=1.00D-06.
 Requested convergence on             energy=1.00D-06.
 No special actions if energy rises.
 Integral accuracy reduced to 1.0D-05 until final iterations.
 Initial convergence to 1.0D-05 achieved.  Increase integral accuracy.
 SCF Done:  E(RB3LYP) =  -79.8334704234     A.U. after    8 cycles
            NFock=  8  Conv=0.47D-08     -V/T= 2.0108
 Variable Step   Value    
 -------- ---- -----------
    16      10   -1.396263
 ---------------------------------------------------------------------------------------------------
                            Z-MATRIX (ANGSTROMS AND DEGREES)
   CD    Cent   Atom    N1       Length/X        N2       Alpha/Y        N3        Beta/Z          J
 ---------------------------------------------------------------------------------------------------
      1      1  C 
      2      2  H        1   1.096128(     1)
      3      3  H        1   1.096128(     2)      2  107.553(     8)
      4      4  H        1   1.096128(     3)      2  107.553(     9)      3  115.583(    14)      0
      5      5  C        1   1.530090(     4)      2  111.328(    10)      3 -122.209(    15)      0
      6      6  H        5   1.096128(     5)      1  111.328(    11)      2  -80.000(    16)      0
      7      7  H        5   1.096128(     6)      1  111.328(    12)      3  -80.000(    17)      0
      8      8  H        5   1.096128(     7)      1  111.328(    13)      4  -80.000(    18)      0
 ---------------------------------------------------------------------------------------------------
                         Z-Matrix orientation:                         
 ---------------------------------------------------------------------
 Center     Atomic      Atomic             Coordinates (Angstroms)
 Number     Number       Type             X           Y           Z
 ---------------------------------------------------------------------
      1          6           0        0.000000    0.000000    0.000000
      2          1           0        0.000000    0.000000    1.096128
      3          1           0        1.045092    0.000000   -0.330575
      4          1           0       -0.451283   -0.942635   -0.330575
      5          6           0       -0.759694    1.205967   -0.556492
      6          1           0       -1.842808    1.038779   -0.536322
      7          1           0       -0.553932    2.110703    0.027127
      8          1           0       -0.476148    1.411054   -1.595260
 ---------------------------------------------------------------------
                    Distance matrix (angstroms):
                    1          2          3          4          5
     1  C    0.000000
     2  H    1.096128   0.000000
     3  H    1.096128   1.768530   0.000000
     4  H    1.096128   1.768530   1.768530   0.000000
     5  C    1.530090   2.182349   2.182349   2.182349   0.000000
     6  H    2.182349   2.672059   3.075932   2.429953   1.096128
     7  H    2.182349   2.429953   2.672059   3.075932   1.096128
     8  H    2.182349   3.075932   2.429953   2.672059   1.096128
                    6          7          8
     6  H    0.000000
     7  H    1.768530   0.000000
     8  H    1.768530   1.768530   0.000000
 Symmetry turned off by external request.
 Stoichiometry    C2H6
 Framework group  D3[C3(C.C),X(H6)]
 Deg. of freedom     4
 Full point group                 D3      NOp   6
 Rotational constants (GHZ):          80.1636047          19.9061590          19.9061590
 Standard basis: 6-31G(d) (6D, 7F)
    42 basis functions,    80 primitive gaussians,    42 cartesian basis functions
     9 alpha electrons        9 beta electrons
       nuclear repulsion energy        42.1183690049 Hartrees.
 NAtoms=    8 NActive=    8 NUniq=    8 SFac= 1.00D+00 NAtFMM=   60 NAOKFM=F Big=F
 Integral buffers will be    131072 words long.
 Raffenetti 2 integral format.
 Two-electron integral symmetry is turned off.
 Nuclear repulsion after empirical dispersion term =       42.1129636826 Hartrees.
 One-electron integrals computed using PRISM.
 NBasis=    42 RedAO= T EigKep=  8.39D-03  NBF=    42
 NBsUse=    42 1.00D-06 EigRej= -1.00D+00 NBFU=    42
 Initial guess from the checkpoint file:  "example.chk"
 B after Tr=     0.000000    0.000000    0.000000
         Rot=    0.999048    0.021657   -0.034379    0.015864 Ang=   5.00 deg.
 ExpMin= 1.61D-01 ExpMax= 3.05D+03 ExpMxC= 4.57D+02 IAcc=3 IRadAn=         5 AccDes= 0.00D+00
 Harris functional with IExCor=  402 and IRadAn=       5 diagonalized for initial guess.
 HarFok:  IExCor=  402 AccDes= 0.00D+00 IRadAn=         5 IDoV= 1 UseB2=F ITyADJ=14
 ICtDFT=  3500011 ScaDFX=  1.000000  1.000000  1.000000  1.000000
 FoFCou: FMM=F IPFlag=           0 FMFlag=      100000 FMFlg1=           0
         NFxFlg=           0 DoJE=T BraDBF=F KetDBF=T FulRan=T
         wScrn=  0.000000 ICntrl=       500 IOpCl=  0 I1Cent=   200000004 NGrid=           0
         NMat0=    1 NMatS0=      1 NMatT0=    0 NMatD0=    1 NMtDS0=    0 NMtDT0=    0
 Symmetry not used in FoFCou.
 Keep R1 ints in memory in canonical form, NReq=7324370.
 Requested convergence on RMS density matrix=1.00D-08 within 128 cycles.
 Requested convergence on MAX density matrix=1.00D-06.
 Requested convergence on             energy=1.00D-06.
 No special actions if energy rises.
 Integral accuracy reduced to 1.0D-05 until final iterations.
 Initial convergence to 1.0D-05 achieved.  Increase integral accuracy.
 SCF Done:  E(RB3LYP) =  -79.8346527241     A.U. after    8 cycles
            NFock=  8  Conv=0.26D-08     -V/T= 2.0108
 Variable Step   Value    
 -------- ---- -----------
    16      11   -1.221730
 ---------------------------------------------------------------------------------------------------
                            Z-MATRIX (ANGSTROMS AND DEGREES)
   CD    Cent   Atom    N1       Length/X        N2       Alpha/Y        N3        Beta/Z          J
 ---------------------------------------------------------------------------------------------------
      1      1  C 
      2      2  H        1   1.096128(     1)
      3      3  H        1   1.096128(     2)      2  107.553(     8)
      4      4  H        1   1.096128(     3)      2  107.553(     9)      3  115.583(    14)      0
      5      5  C        1   1.530090(     4)      2  111.328(    10)      3 -122.209(    15)      0
      6      6  H        5   1.096128(     5)      1  111.328(    11)      2  -70.000(    16)      0
      7      7  H        5   1.096128(     6)      1  111.328(    12)      3  -70.000(    17)      0
      8      8  H        5   1.096128(     7)      1  111.328(    13)      4  -70.000(    18)      0
 ---------------------------------------------------------------------------------------------------
                         Z-Matrix orientation:                         
 ---------------------------------------------------------------------
 Center     Atomic      Atomic             Coordinates (Angstroms)
 Number     Number       Type             X           Y           Z
 ---------------------------------------------------------------------
      1          6           0        0.000000    0.000000    0.000000
      2          1           0        0.000000    0.000000    1.096128
      3          1           0        1.045092    0.000000   -0.330575
      4          1           0       -0.451283   -0.942635   -0.330575
      5          6           0       -0.759694    1.205967   -0.556492
      6          1           0       -1.837159    1.116236   -0.376178
      7          1           0       -0.423050    2.139055   -0.090107
      8          1           0       -0.612680    1.305246   -1.638170
 ---------------------------------------------------------------------
                    Distance matrix (angstroms):
                    1          2          3          4          5
     1  C    0.000000
     2  H    1.096128   0.000000
     3  H    1.096128   1.768530   0.000000
     4  H    1.096128   1.768530   1.768530   0.000000
     5  C    1.530090   2.182349   2.182349   2.182349   0.000000
     6  H    2.182349   2.605536   3.091186   2.482273   1.096128
     7  H    2.182349   2.482273   2.605536   3.091186   1.096128
     8  H    2.182349   3.091186   2.482273   2.605536   1.096128
                    6          7          8
     6  H    0.000000
     7  H    1.768530   0.000000
     8  H    1.768530   1.768530   0.000000
 Symmetry turned off by external request.
 Stoichiometry    C2H6
 Framework group  D3[C3(C.C),X(H6)]
 Deg. of freedom     4
 Full point group                 D3      NOp   6
 Rotational constants (GHZ):          80.1636047          19.9061590          19.9061590
 Standard basis: 6-31G(d) (6D, 7F)
    42 basis functions,    80 primitive gaussians,    42 cartesian basis functions
     9 alpha electrons        9 beta electrons
       nuclear repulsion energy        42.1172206199 Hartrees.
 NAtoms=    8 NActive=    8 NUniq=    8 SFac= 1.00D+00 NAtFMM=   60 NAOKFM=F Big=F
 Integral buffers will be    131072 words long.
 Raffenetti 2 integral format.
 Two-electron integral symmetry is turned off.
 Nuclear repulsion after empirical dispersion term =       42.1118138643 Hartrees.
 One-electron integrals computed using PRISM.
 NBasis=    42 RedAO= T EigKep=  8.45D-03  NBF=    42
 NBsUse=    42 1.00D-06 EigRej= -1.00D+00 NBFU=    42
 Initial guess from the checkpoint file:  "example.chk"
 B after Tr=     0.000000    0.000000    0.000000
         Rot=    0.999048    0.021657   -0.034379    0.015864 Ang=   5.00 deg.
 ExpMin= 1.61D-01 ExpMax= 3.05D+03 ExpMxC= 4.57D+02 IAcc=3 IRadAn=         5 AccDes= 0.00D+00
 Harris functional with IExCor=  402 and IRadAn=       5 diagonalized for initial guess.
 HarFok:  IExCor=  402 AccDes= 0.00D+00 IRadAn=         5 IDoV= 1 UseB2=F ITyADJ=14
 ICtDFT=  3500011 ScaDFX=  1.000000  1.000000  1.000000  1.000000
 FoFCou: FMM=F IPFlag=           0 FMFlag=      100000 FMFlg1=           0
         NFxFlg=           0 DoJE=T BraDBF=F KetDBF=T FulRan=T
         wScrn=  0.000000 ICntrl=       500 IOpCl=  0 I1Cent=   200000004 NGrid=           0
         NMat0=    1 NMatS0=      1 NMatT0=    0 NMatD0=    1 NMtDS0=    0 NMtDT0=    0
 Symmetry not used in FoFCou.
 Keep R1 ints in memory in canonical form, NReq=7324370.
 Requested convergence on RMS density matrix=1.00D-08 within 128 cycles.
 Requested convergence on MAX density matrix=1.00D-06.
 Requested convergence on             energy=1.00D-06.
 No special actions if energy rises.
 Integral accuracy reduced to 1.0D-05 until final iterations.
 Initial convergence to 1.0D-05 achieved.  Increase integral accuracy.
 SCF Done:  E(RB3LYP) =  -79.8355136185     A.U. after    8 cycles
            NFock=  8  Conv=0.18D-08     -V/T= 2.0109
 Variable Step   Value    
 -------- ---- -----------
    16      12   -1.047198
 ---------------------------------------------------------------------------------------------------
                            Z-MATRIX (ANGSTROMS AND DEGREES)
   CD    Cent   Atom    N1       Length/X        N2       Alpha/Y        N3        Beta/Z          J
 ---------------------------------------------------------------------------------------------------
      1      1  C 
      2      2  H        1   1.096128(     1)
      3      3  H        1   1.096128(     2)      2  107.553(     8)
      4      4  H        1   1.096128(     3)      2  107.553(     9)      3  115.583(    14)      0
      5      5  C        1   1.530090(     4)      2  111.328(    10)      3 -122.209(    15)      0
      6      6  H        5   1.096128(     5)      1  111.328(    11)      2  -60.000(    16)      0
      7      7  H        5   1.096128(     6)      1  111.328(    12)      3  -60.000(    17)      0
      8      8  H        5   1.096128(     7)      1  111.328(    13)      4  -60.000(    18)      0
 ---------------------------------------------------------------------------------------------------
                         Z-Matrix orientation:                         
 ---------------------------------------------------------------------
 Center     Atomic      Atomic             Coordinates (Angstroms)
 Number     Number       Type             X           Y           Z
 ---------------------------------------------------------------------
      1          6           0        0.000000    0.000000    0.000000
      2          1           0        0.000000    0.000000    1.096128
      3          1           0        1.045092    0.000000   -0.330575
      4          1           0       -0.451283   -0.942635   -0.330575
      5          6           0       -0.759694    1.205967   -0.556492
      6          1           0       -1.804785    1.205967   -0.225917
      7          1           0       -0.308410    2.148602   -0.225917
      8          1           0       -0.759694    1.205967   -1.652620
 ---------------------------------------------------------------------
                    Distance matrix (angstroms):
                    1          2          3          4          5
     1  C    0.000000
     2  H    1.096128   0.000000
     3  H    1.096128   1.768530   0.000000
     4  H    1.096128   1.768530   1.768530   0.000000
     5  C    1.530090   2.182349   2.182349   2.182349   0.000000
     6  H    2.182349   2.541537   3.096306   2.541537   1.096128
     7  H    2.182349   2.541537   2.541537   3.096306   1.096128
     8  H    2.182349   3.096306   2.541537   2.541537   1.096128
                    6          7          8
     6  H    0.000000
     7  H    1.768530   0.000000
     8  H    1.768530   1.768530   0.000000
 Symmetry turned off by external request.
 Stoichiometry    C2H6
 Framework group  D3D[C3(C.C),3SGD(H2)]
 Deg. of freedom     3
 Full point group                 D3D     NOp  12
 Rotational constants (GHZ):          80.1636047          19.9061590          19.9061590
 Standard basis: 6-31G(d) (6D, 7F)
    42 basis functions,    80 primitive gaussians,    42 cartesian basis functions
     9 alpha electrons        9 beta electrons
       nuclear repulsion energy        42.1168011421 Hartrees.
 NAtoms=    8 NActive=    8 NUniq=    8 SFac= 1.00D+00 NAtFMM=   60 NAOKFM=F Big=F
 Integral buffers will be    131072 words long.
 Raffenetti 2 integral format.
 Two-electron integral symmetry is turned off.
 Nuclear repulsion after empirical dispersion term =       42.1113938615 Hartrees.
 One-electron integrals computed using PRISM.
 NBasis=    42 RedAO= T EigKep=  8.48D-03  NBF=    42
 NBsUse=    42 1.00D-06 EigRej= -1.00D+00 NBFU=    42
 Initial guess from the checkpoint file:  "example.chk"
 B after Tr=     0.000000    0.000000    0.000000
         Rot=    0.999048    0.021657   -0.034379    0.015864 Ang=   5.00 deg.
 ExpMin= 1.61D-01 ExpMax= 3.05D+03 ExpMxC= 4.57D+02 IAcc=3 IRadAn=         5 AccDes= 0.00D+00
 Harris functional with IExCor=  402 and IRadAn=       5 diagonalized for initial guess.
 HarFok:  IExCor=  402 AccDes= 0.00D+00 IRadAn=         5 IDoV= 1 UseB2=F ITyADJ=14
 ICtDFT=  3500011 ScaDFX=  1.000000  1.000000  1.000000  1.000000
 FoFCou: FMM=F IPFlag=           0 FMFlag=      100000 FMFlg1=           0
         NFxFlg=           0 DoJE=T BraDBF=F KetDBF=T FulRan=T
         wScrn=  0.000000 ICntrl=       500 IOpCl=  0 I1Cent=   200000004 NGrid=           0
         NMat0=    1 NMatS0=      1 NMatT0=    0 NMatD0=    1 NMtDS0=    0 NMtDT0=    0
 Symmetry not used in FoFCou.
 Keep R1 ints in memory in canonical form, NReq=7324370.
 Requested convergence on RMS density matrix=1.00D-08 within 128 cycles.
 Requested convergence on MAX density matrix=1.00D-06.
 Requested convergence on             energy=1.00D-06.
 No special actions if energy rises.
 Integral accuracy reduced to 1.0D-05 until final iterations.
 Initial convergence to 1.0D-05 achieved.  Increase integral accuracy.
 SCF Done:  E(RB3LYP) =  -79.8358277568     A.U. after    8 cycles
            NFock=  8  Conv=0.33D-08     -V/T= 2.0109
 Variable Step   Value    
 -------- ---- -----------
    16      13   -0.872665
 ---------------------------------------------------------------------------------------------------
                            Z-MATRIX (ANGSTROMS AND DEGREES)
   CD    Cent   Atom    N1       Length/X        N2       Alpha/Y        N3        Beta/Z          J
 ---------------------------------------------------------------------------------------------------
      1      1  C 
      2      2  H        1   1.096128(     1)
      3      3  H        1   1.096128(     2)      2  107.553(     8)
      4      4  H        1   1.096128(     3)      2  107.553(     9)      3  115.583(    14)      0
      5      5  C        1   1.530090(     4)      2  111.328(    10)      3 -122.209(    15)      0
      6      6  H        5   1.096128(     5)      1  111.328(    11)      2  -50.000(    16)      0
      7      7  H        5   1.096128(     6)      1  111.328(    12)      3  -50.000(    17)      0
      8      8  H        5   1.096128(     7)      1  111.328(    13)      4  -50.000(    18)      0
 ---------------------------------------------------------------------------------------------------
                         Z-Matrix orientation:                         
 ---------------------------------------------------------------------
 Center     Atomic      Atomic             Coordinates (Angstroms)
 Number     Number       Type             X           Y           Z
 ---------------------------------------------------------------------
      1          6           0        0.000000    0.000000    0.000000
      2          1           0        0.000000    0.000000    1.096128
      3          1           0        1.045092    0.000000   -0.330575
[...]
         NFxFlg=           0 DoJE=T BraDBF=F KetDBF=T FulRan=T
         wScrn=  0.000000 ICntrl=       500 IOpCl=  0 I1Cent=   200000004 NGrid=           0
         NMat0=    1 NMatS0=      1 NMatT0=    0 NMatD0=    1 NMtDS0=    0 NMtDT0=    0
 Symmetry not used in FoFCou.
 Keep R1 ints in memory in canonical form, NReq=7324370.
 Requested convergence on RMS density matrix=1.00D-08 within 128 cycles.
 Requested convergence on MAX density matrix=1.00D-06.
 Requested convergence on             energy=1.00D-06.
 No special actions if energy rises.
 Integral accuracy reduced to 1.0D-05 until final iterations.
 Initial convergence to 1.0D-05 achieved.  Increase integral accuracy.
 SCF Done:  E(RB3LYP) =  -79.8334704234     A.U. after    8 cycles
            NFock=  8  Conv=0.47D-08     -V/T= 2.0108
 Variable Step   Value    
 -------- ---- -----------
    16      34    2.792527
 ---------------------------------------------------------------------------------------------------
                            Z-MATRIX (ANGSTROMS AND DEGREES)
   CD    Cent   Atom    N1       Length/X        N2       Alpha/Y        N3        Beta/Z          J
 ---------------------------------------------------------------------------------------------------
      1      1  C 
      2      2  H        1   1.096128(     1)
      3      3  H        1   1.096128(     2)      2  107.553(     8)
      4      4  H        1   1.096128(     3)      2  107.553(     9)      3  115.583(    14)      0
      5      5  C        1   1.530090(     4)      2  111.328(    10)      3 -122.209(    15)      0
      6      6  H        5   1.096128(     5)      1  111.328(    11)      2  160.000(    16)      0
      7      7  H        5   1.096128(     6)      1  111.328(    12)      3  160.000(    17)      0
      8      8  H        5   1.096128(     7)      1  111.328(    13)      4  160.000(    18)      0
 ---------------------------------------------------------------------------------------------------
                         Z-Matrix orientation:                         
 ---------------------------------------------------------------------
 Center     Atomic      Atomic             Coordinates (Angstroms)
 Number     Number       Type             X           Y           Z
 ---------------------------------------------------------------------
      1          6           0        0.000000    0.000000    0.000000
      2          1           0        0.000000    0.000000    1.096128
      3          1           0        1.045092    0.000000   -0.330575
      4          1           0       -0.451283   -0.942635   -0.330575
      5          6           0       -0.759694    1.205967   -0.556492
      6          1           0       -0.476148    1.411054   -1.595260
      7          1           0       -1.842808    1.038779   -0.536322
      8          1           0       -0.553932    2.110703    0.027127
 ---------------------------------------------------------------------
                    Distance matrix (angstroms):
                    1          2          3          4          5
     1  C    0.000000
     2  H    1.096128   0.000000
     3  H    1.096128   1.768530   0.000000
     4  H    1.096128   1.768530   1.768530   0.000000
     5  C    1.530090   2.182349   2.182349   2.182349   0.000000
     6  H    2.182349   3.075932   2.429953   2.672059   1.096128
     7  H    2.182349   2.672059   3.075932   2.429953   1.096128
     8  H    2.182349   2.429953   2.672059   3.075932   1.096128
                    6          7          8
     6  H    0.000000
     7  H    1.768530   0.000000
     8  H    1.768530   1.768530   0.000000
 Symmetry turned off by external request.
 Stoichiometry    C2H6
 Framework group  D3[C3(C.C),X(H6)]
 Deg. of freedom     4
 Full point group                 D3      NOp   6
 Rotational constants (GHZ):          80.1636047          19.9061590          19.9061590
 Standard basis: 6-31G(d) (6D, 7F)
    42 basis functions,    80 primitive gaussians,    42 cartesian basis functions
     9 alpha electrons        9 beta electrons
       nuclear repulsion energy        42.1183690049 Hartrees.
 NAtoms=    8 NActive=    8 NUniq=    8 SFac= 1.00D+00 NAtFMM=   60 NAOKFM=F Big=F
 Integral buffers will be    131072 words long.
 Raffenetti 2 integral format.
 Two-electron integral symmetry is turned off.
 Nuclear repulsion after empirical dispersion term =       42.1129636826 Hartrees.
 One-electron integrals computed using PRISM.
 NBasis=    42 RedAO= T EigKep=  8.39D-03  NBF=    42
 NBsUse=    42 1.00D-06 EigRej= -1.00D+00 NBFU=    42
 Initial guess from the checkpoint file:  "example.chk"
 B after Tr=     0.000000    0.000000    0.000000
         Rot=    0.999048    0.021657   -0.034379    0.015864 Ang=   5.00 deg.
 ExpMin= 1.61D-01 ExpMax= 3.05D+03 ExpMxC= 4.57D+02 IAcc=3 IRadAn=         5 AccDes= 0.00D+00
 Harris functional with IExCor=  402 and IRadAn=       5 diagonalized for initial guess.
 HarFok:  IExCor=  402 AccDes= 0.00D+00 IRadAn=         5 IDoV= 1 UseB2=F ITyADJ=14
 ICtDFT=  3500011 ScaDFX=  1.000000  1.000000  1.000000  1.000000
 FoFCou: FMM=F IPFlag=           0 FMFlag=      100000 FMFlg1=           0
         NFxFlg=           0 DoJE=T BraDBF=F KetDBF=T FulRan=T
         wScrn=  0.000000 ICntrl=       500 IOpCl=  0 I1Cent=   200000004 NGrid=           0
         NMat0=    1 NMatS0=      1 NMatT0=    0 NMatD0=    1 NMtDS0=    0 NMtDT0=    0
 Symmetry not used in FoFCou.
 Keep R1 ints in memory in canonical form, NReq=7324370.
 Requested convergence on RMS density matrix=1.00D-08 within 128 cycles.
 Requested convergence on MAX density matrix=1.00D-06.
 Requested convergence on             energy=1.00D-06.
 No special actions if energy rises.
 Integral accuracy reduced to 1.0D-05 until final iterations.
 Initial convergence to 1.0D-05 achieved.  Increase integral accuracy.
 SCF Done:  E(RB3LYP) =  -79.8346527241     A.U. after    8 cycles
            NFock=  8  Conv=0.26D-08     -V/T= 2.0108
 Variable Step   Value    
 -------- ---- -----------
    16      35    2.967060
 ---------------------------------------------------------------------------------------------------
                            Z-MATRIX (ANGSTROMS AND DEGREES)
   CD    Cent   Atom    N1       Length/X        N2       Alpha/Y        N3        Beta/Z          J
 ---------------------------------------------------------------------------------------------------
      1      1  C 
      2      2  H        1   1.096128(     1)
      3      3  H        1   1.096128(     2)      2  107.553(     8)
      4      4  H        1   1.096128(     3)      2  107.553(     9)      3  115.583(    14)      0
      5      5  C        1   1.530090(     4)      2  111.328(    10)      3 -122.209(    15)      0
      6      6  H        5   1.096128(     5)      1  111.328(    11)      2  170.000(    16)      0
      7      7  H        5   1.096128(     6)      1  111.328(    12)      3  170.000(    17)      0
      8      8  H        5   1.096128(     7)      1  111.328(    13)      4  170.000(    18)      0
 ---------------------------------------------------------------------------------------------------
                         Z-Matrix orientation:                         
 ---------------------------------------------------------------------
 Center     Atomic      Atomic             Coordinates (Angstroms)
 Number     Number       Type             X           Y           Z
 ---------------------------------------------------------------------
      1          6           0        0.000000    0.000000    0.000000
      2          1           0        0.000000    0.000000    1.096128
      3          1           0        1.045092    0.000000   -0.330575
      4          1           0       -0.451283   -0.942635   -0.330575
      5          6           0       -0.759694    1.205967   -0.556492
      6          1           0       -0.612680    1.305246   -1.638170
      7          1           0       -1.837159    1.116236   -0.376178
      8          1           0       -0.423050    2.139055   -0.090107
 ---------------------------------------------------------------------
                    Distance matrix (angstroms):
                    1          2          3          4          5
     1  C    0.000000
     2  H    1.096128   0.000000
     3  H    1.096128   1.768530   0.000000
     4  H    1.096128   1.768530   1.768530   0.000000
     5  C    1.530090   2.182349   2.182349   2.182349   0.000000
     6  H    2.182349   3.091186   2.482273   2.605536   1.096128
     7  H    2.182349   2.605536   3.091186   2.482273   1.096128
     8  H    2.182349   2.482273   2.605536   3.091186   1.096128
                    6          7          8
     6  H    0.000000
     7  H    1.768530   0.000000
     8  H    1.768530   1.768530   0.000000
 Symmetry turned off by external request.
 Stoichiometry    C2H6
 Framework group  D3[C3(C.C),X(H6)]
 Deg. of freedom     4
 Full point group                 D3      NOp   6
 Rotational constants (GHZ):          80.1636047          19.9061590          19.9061590
 Standard basis: 6-31G(d) (6D, 7F)
    42 basis functions,    80 primitive gaussians,    42 cartesian basis functions
     9 alpha electrons        9 beta electrons
       nuclear repulsion energy        42.1172206199 Hartrees.
 NAtoms=    8 NActive=    8 NUniq=    8 SFac= 1.00D+00 NAtFMM=   60 NAOKFM=F Big=F
 Integral buffers will be    131072 words long.
 Raffenetti 2 integral format.
 Two-electron integral symmetry is turned off.
 Nuclear repulsion after empirical dispersion term =       42.1118138643 Hartrees.
 One-electron integrals computed using PRISM.
 NBasis=    42 RedAO= T EigKep=  8.45D-03  NBF=    42
 NBsUse=    42 1.00D-06 EigRej= -1.00D+00 NBFU=    42
 Initial guess from the checkpoint file:  "example.chk"
 B after Tr=     0.000000    0.000000    0.000000
         Rot=    0.999048    0.021657   -0.034379    0.015864 Ang=   5.00 deg.
 ExpMin= 1.61D-01 ExpMax= 3.05D+03 ExpMxC= 4.57D+02 IAcc=3 IRadAn=         5 AccDes= 0.00D+00
 Harris functional with IExCor=  402 and IRadAn=       5 diagonalized for initial guess.
 HarFok:  IExCor=  402 AccDes= 0.00D+00 IRadAn=         5 IDoV= 1 UseB2=F ITyADJ=14
 ICtDFT=  3500011 ScaDFX=  1.000000  1.000000  1.000000  1.000000
 FoFCou: FMM=F IPFlag=           0 FMFlag=      100000 FMFlg1=           0
         NFxFlg=           0 DoJE=T BraDBF=F KetDBF=T FulRan=T
         wScrn=  0.000000 ICntrl=       500 IOpCl=  0 I1Cent=   200000004 NGrid=           0
         NMat0=    1 NMatS0=      1 NMatT0=    0 NMatD0=    1 NMtDS0=    0 NMtDT0=    0
 Symmetry not used in FoFCou.
 Keep R1 ints in memory in canonical form, NReq=7324370.
 Requested convergence on RMS density matrix=1.00D-08 within 128 cycles.
 Requested convergence on MAX density matrix=1.00D-06.
 Requested convergence on             energy=1.00D-06.
 No special actions if energy rises.
 Integral accuracy reduced to 1.0D-05 until final iterations.
 Initial convergence to 1.0D-05 achieved.  Increase integral accuracy.
 SCF Done:  E(RB3LYP) =  -79.8355136185     A.U. after    8 cycles
            NFock=  8  Conv=0.18D-08     -V/T= 2.0109
 Variable Step   Value    
 -------- ---- -----------
    16      36    3.141593
 ---------------------------------------------------------------------------------------------------
                            Z-MATRIX (ANGSTROMS AND DEGREES)
   CD    Cent   Atom    N1       Length/X        N2       Alpha/Y        N3        Beta/Z          J
 ---------------------------------------------------------------------------------------------------
      1      1  C 
      2      2  H        1   1.096128(     1)
      3      3  H        1   1.096128(     2)      2  107.553(     8)
      4      4  H        1   1.096128(     3)      2  107.553(     9)      3  115.583(    14)      0
      5      5  C        1   1.530090(     4)      2  111.328(    10)      3 -122.209(    15)      0
      6      6  H        5   1.096128(     5)      1  111.328(    11)      2  180.000(    16)      0
      7      7  H        5   1.096128(     6)      1  111.328(    12)      3  180.000(    17)      0
      8      8  H        5   1.096128(     7)      1  111.328(    13)      4  180.000(    18)      0
 ---------------------------------------------------------------------------------------------------
                         Z-Matrix orientation:                         
 ---------------------------------------------------------------------
 Center     Atomic      Atomic             Coordinates (Angstroms)
 Number     Number       Type             X           Y           Z
 ---------------------------------------------------------------------
      1          6           0        0.000000    0.000000    0.000000
      2          1           0        0.000000    0.000000    1.096128
      3          1           0        1.045092    0.000000   -0.330575
      4          1           0       -0.451283   -0.942635   -0.330575
      5          6           0       -0.759694    1.205967   -0.556492
      6          1           0       -0.759694    1.205967   -1.652620
      7          1           0       -1.804785    1.205967   -0.225917
      8          1           0       -0.308410    2.148602   -0.225917
 ---------------------------------------------------------------------
                    Distance matrix (angstroms):
                    1          2          3          4          5
     1  C    0.000000
     2  H    1.096128   0.000000
     3  H    1.096128   1.768530   0.000000
     4  H    1.096128   1.768530   1.768530   0.000000
     5  C    1.530090   2.182349   2.182349   2.182349   0.000000
     6  H    2.182349   3.096306   2.541537   2.541537   1.096128
     7  H    2.182349   2.541537   3.096306   2.541537   1.096128
     8  H    2.182349   2.541537   2.541537   3.096306   1.096128
                    6          7          8
     6  H    0.000000
     7  H    1.768530   0.000000
     8  H    1.768530   1.768530   0.000000
 Symmetry turned off by external request.
 Stoichiometry    C2H6
 Framework group  D3D[C3(C.C),3SGD(H2)]
 Deg. of freedom     3
 Full point group                 D3D     NOp  12
 Rotational constants (GHZ):          80.1636047          19.9061590          19.9061590
 Standard basis: 6-31G(d) (6D, 7F)
    42 basis functions,    80 primitive gaussians,    42 cartesian basis functions
     9 alpha electrons        9 beta electrons
       nuclear repulsion energy        42.1168011421 Hartrees.
 NAtoms=    8 NActive=    8 NUniq=    8 SFac= 1.00D+00 NAtFMM=   60 NAOKFM=F Big=F
 Integral buffers will be    131072 words long.
 Raffenetti 2 integral format.
 Two-electron integral symmetry is turned off.
 Nuclear repulsion after empirical dispersion term =       42.1113938615 Hartrees.
 One-electron integrals computed using PRISM.
 NBasis=    42 RedAO= T EigKep=  8.48D-03  NBF=    42
 NBsUse=    42 1.00D-06 EigRej= -1.00D+00 NBFU=    42
 Initial guess from the checkpoint file:  "example.chk"
 B after Tr=     0.000000    0.000000    0.000000
         Rot=    0.999048    0.021657   -0.034379    0.015864 Ang=   5.00 deg.
 ExpMin= 1.61D-01 ExpMax= 3.05D+03 ExpMxC= 4.57D+02 IAcc=3 IRadAn=         5 AccDes= 0.00D+00
 Harris functional with IExCor=  402 and IRadAn=       5 diagonalized for initial guess.
 HarFok:  IExCor=  402 AccDes= 0.00D+00 IRadAn=         5 IDoV= 1 UseB2=F ITyADJ=14
 ICtDFT=  3500011 ScaDFX=  1.000000  1.000000  1.000000  1.000000
 FoFCou: FMM=F IPFlag=           0 FMFlag=      100000 FMFlg1=           0
         NFxFlg=           0 DoJE=T BraDBF=F KetDBF=T FulRan=T
         wScrn=  0.000000 ICntrl=       500 IOpCl=  0 I1Cent=   200000004 NGrid=           0
         NMat0=    1 NMatS0=      1 NMatT0=    0 NMatD0=    1 NMtDS0=    0 NMtDT0=    0
 Symmetry not used in FoFCou.
 Keep R1 ints in memory in canonical form, NReq=7324370.
 Requested convergence on RMS density matrix=1.00D-08 within 128 cycles.
 Requested convergence on MAX density matrix=1.00D-06.
 Requested convergence on             energy=1.00D-06.
 No special actions if energy rises.
 Integral accuracy reduced to 1.0D-05 until final iterations.
 Initial convergence to 1.0D-05 achieved.  Increase integral accuracy.
 SCF Done:  E(RB3LYP) =  -79.8358277568     A.U. after    8 cycles
            NFock=  8  Conv=0.33D-08     -V/T= 2.0109
 Scan completed.
 
 Summary of the potential surface scan:
   N      D3          SCF    
 ----  ---------  -----------
    1  -180.0000    -79.83583
    2  -170.0000    -79.83551
    3  -160.0000    -79.83465
    4  -150.0000    -79.83347
    5  -140.0000    -79.83228
    6  -130.0000    -79.83140
    7  -120.0000    -79.83108
    8  -110.0000    -79.83140
    9  -100.0000    -79.83228
   10   -90.0000    -79.83347
   11   -80.0000    -79.83465
   12   -70.0000    -79.83551
   13   -60.0000    -79.83583
   14   -50.0000    -79.83551
   15   -40.0000    -79.83465
   16   -30.0000    -79.83347
   17   -20.0000    -79.83228
   18   -10.0000    -79.83140
   19     0.0000    -79.83108
   20    10.0000    -79.83140
   21    20.0000    -79.83228
   22    30.0000    -79.83347
   23    40.0000    -79.83465
   24    50.0000    -79.83551
   25    60.0000    -79.83583
   26    70.0000    -79.83551
   27    80.0000    -79.83465
   28    90.0000    -79.83347
   29   100.0000    -79.83228
   30   110.0000    -79.83140
   31   120.0000    -79.83108
   32   130.0000    -79.83140
   33   140.0000    -79.83228
   34   150.0000    -79.83347
   35   160.0000    -79.83465
   36   170.0000    -79.83551
   37   180.0000    -79.83583
 ----  ---------  -----------
  
 1|1|UNPC-DESKTOP-ATGL590|Scan|RB3LYP|6-31G(d)|C2H6|ICCAS|15-Jul-2022|1
 ||# Scan B3LYP/6-31G* EmpiricalDispersion=GD3BJ NoSymmetry||Optimized 
 at B3LYP-D3(BJ)/6-31G*||0,1|C|H,1,B1|H,1,B2,2,A1|H,1,B3,2,A2,3,D1,0|C,
 1,B4,2,A3,3,D2,0|H,5,B5,1,A4,2,D3,0|H,5,B6,1,A5,3,D3,0|H,5,B7,1,A6,4,D
 3,0||B1=1.09612794|B2=1.09612794|B3=1.09612794|B4=1.53009|B5=1.0961279
 4|B6=1.09612794|B7=1.09612794|A1=107.55279015|A2=107.55279015|A3=111.3
 275482|A4=111.3275482|A5=111.3275482|A6=111.3275482|D1=115.58262284|D2
 =-122.20868858|D3=-180.,s,36,10.||Version=EM64W-G16RevB.01|HF=-79.8358
 278,-79.8355137,-79.8346528,-79.8334704,-79.8322806,-79.8314049,-79.83
 10832,-79.831405,-79.8322804,-79.8334704,-79.8346527,-79.8355136,-79.8
 358278,-79.8355137,-79.8346528,-79.8334704,-79.8322806,-79.8314049,-79
 .8310832,-79.831405,-79.8322804,-79.8334704,-79.8346527,-79.8355136,-7
 9.8358278,-79.8355137,-79.8346528,-79.8334704,-79.8322806,-79.8314049,
 -79.8310832,-79.831405,-79.8322804,-79.8334704,-79.8346527,-79.8355136
 ,-79.8358278|RMSD=1.161e-009,5.520e-009,6.808e-009,4.953e-010,8.683e-0
 09,9.564e-010,8.269e-009,3.662e-009,4.977e-009,4.654e-009,2.561e-009,1
 .845e-009,3.346e-009,5.520e-009,6.808e-009,4.953e-010,8.683e-009,9.564
 e-010,8.269e-009,3.662e-009,4.977e-009,4.654e-009,2.561e-009,1.845e-00
 9,3.346e-009,5.520e-009,6.808e-009,4.953e-010,8.683e-009,9.564e-010,8.
 269e-009,3.662e-009,4.977e-009,4.654e-009,2.561e-009,1.845e-009,3.346e
 -009|PG=D03D [C3(C1.C1),3SGD(H2)]||@


 IT IS THE BEHAVIOR AND DISTRIBUTION OF THE ELECTRONS 
 AROUND THE NUCLEUS THAT GIVES THE FUNDAMENTAL 
 CHARACTER OF AN ATOM:  IT MUST BE THE SAME FOR MOLECULES.

                               -- C. A. COULSON, 1951
 Job cpu time:       0 days  0 hours  1 minutes 44.0 seconds.
 Elapsed time:       0 days  0 hours  1 minutes 11.6 seconds.
 File lengths (MBytes):  RWF=      6 Int=      0 D2E=      0 Chk=      2 Scr=      1
 Normal termination of Gaussian 16 at Fri Jul 15 14:31:38 2022.
